# LAMMPS data file written by OVITO Basic 3.7.6
21504 atoms
1 atom types
0.0 158.0 xlo xhi
0.8291521433 104.1708478567 ylo yhi
-5.84 17.52 zlo zhi

Atoms  # atomic

8 1 1.6809503519 3.213988308 -2.2158599872
185 1 1.6809503519 3.213988308 -5.1358599872
10 1 4.4671831116 2.2790574737 -2.2158599872
30 1 6.9826723169 2.1533338572 -0.7558599872
187 1 4.4671831116 2.2790574737 -5.1358599872
207 1 6.9826723169 2.1533338572 -3.6758599872
29 1 6.3155958214 4.4939180794 -2.2158599872
206 1 6.3155958214 4.4939180794 -5.1358599872
31 1 9.0818030562 3.3655227559 -2.2158599872
208 1 9.0818030562 3.3655227559 -5.1358599872
51 1 11.5559503543 3.2139883078 -0.7558599872
53 1 14.3421831168 2.2790574746 -0.7558599872
228 1 11.5559503543 3.2139883078 -3.6758599872
230 1 14.3421831168 2.2790574746 -3.6758599872
75 1 16.857672323 2.1533338589 -2.2158599872
252 1 16.857672323 2.1533338589 -5.1358599872
72 1 16.1905958262 4.4939180802 -0.7558599872
249 1 16.1905958262 4.4939180802 -3.6758599872
74 1 18.9568030619 3.3655227579 -0.7558599872
96 1 21.4309503597 3.2139883102 -2.2158599872
251 1 18.9568030619 3.3655227579 -3.6758599872
273 1 21.4309503597 3.2139883102 -5.1358599872
98 1 24.2171831212 2.2790574771 -2.2158599872
275 1 24.2171831212 2.2790574771 -5.1358599872
118 1 26.7326723265 2.1533338613 -0.7558599872
295 1 26.7326723265 2.1533338613 -3.6758599872
117 1 26.065595829 4.4939180835 -2.2158599872
294 1 26.065595829 4.4939180835 -5.1358599872
119 1 28.831803064 3.3655227611 -2.2158599872
296 1 28.831803064 3.3655227611 -5.1358599872
139 1 31.3059503607 3.213988313 -0.7558599872
316 1 31.3059503607 3.213988313 -3.6758599872
141 1 34.0921831207 2.2790574794 -0.7558599872
318 1 34.0921831207 2.2790574794 -3.6758599872
160 1 35.9405958278 4.4939180858 -0.7558599872
319 1 35.9405958278 4.4939180858 -3.6758599872
162 1 38.7068030627 3.3655227627 -0.7558599872
163 1 36.6076723257 2.153333864 -2.2158599872
253 1 36.6076723257 2.153333864 -5.1358599872
274 1 38.7068030627 3.3655227627 -3.6758599872
5 1 1.0136270422 5.670359098 -0.7558599872
6 1 3.0811129997 7.1244009442 -2.2158599872
182 1 1.0136270422 5.670359098 -3.6758599872
183 1 3.0811129997 7.1244009442 -5.1358599872
1519 1 0.3320650502 8.1381260522 -2.2158599872
1375 1 0.3320650502 8.1381260522 -5.1358599872
7 1 3.7559614988 4.6796397925 -0.7558599872
184 1 3.7559614988 4.6796397925 -3.6758599872
26 1 5.6122743498 6.9276436761 -0.7558599872
203 1 5.6122743498 6.9276436761 -3.6758599872
28 1 8.3809684288 5.9002082276 -0.7558599872
205 1 8.3809684288 5.9002082276 -3.6758599872
47 1 10.2070650489 8.1381260492 -0.7558599872
224 1 10.2070650489 8.1381260492 -3.6758599872
50 1 10.8886270429 5.6703590963 -2.2158599872
227 1 10.8886270429 5.6703590963 -5.1358599872
49 1 12.9561130006 7.1244009425 -0.7558599872
52 1 13.630961502 4.679639792 -2.2158599872
226 1 12.9561130006 7.1244009425 -3.6758599872
229 1 13.630961502 4.679639792 -5.1358599872
71 1 15.4872743518 6.927643676 -2.2158599872
248 1 15.4872743518 6.927643676 -5.1358599872
73 1 18.2559684325 5.9002082296 -2.2158599872
250 1 18.2559684325 5.9002082296 -5.1358599872
93 1 20.7636270468 5.6703590991 -0.7558599872
270 1 20.7636270468 5.6703590991 -3.6758599872
92 1 20.0820650503 8.1381260521 -2.2158599872
269 1 20.0820650503 8.1381260521 -5.1358599872
94 1 22.8311130026 7.1244009463 -2.2158599872
95 1 23.5059615059 4.6796397953 -0.7558599872
271 1 22.8311130026 7.1244009463 -5.1358599872
272 1 23.5059615059 4.6796397953 -3.6758599872
114 1 25.3622743535 6.9276436798 -0.7558599872
291 1 25.3622743535 6.9276436798 -3.6758599872
116 1 28.1309684339 5.9002082333 -0.7558599872
293 1 28.1309684339 5.9002082333 -3.6758599872
138 1 30.6386270474 5.6703591025 -2.2158599872
315 1 30.6386270474 5.6703591025 -5.1358599872
135 1 29.9570650502 8.1381260557 -0.7558599872
312 1 29.9570650502 8.1381260557 -3.6758599872
137 1 32.7061130026 7.1244009494 -0.7558599872
314 1 32.7061130026 7.1244009494 -3.6758599872
140 1 33.3809615061 4.6796397982 -2.2158599872
159 1 35.2372743533 6.9276436823 -2.2158599872
317 1 33.3809615061 4.6796397982 -5.1358599872
336 1 35.2372743533 6.9276436823 -5.1358599872
161 1 38.0059684334 5.9002082342 -2.2158599872
297 1 38.0059684334 5.9002082342 -5.1358599872
4 1 2.3954804224 9.5767442565 -0.7558599872
181 1 2.3954804224 9.5767442565 -3.6758599872
22 1 4.2343091696 11.8238167368 -0.7558599872
24 1 6.9906513782 10.8050783125 -0.7558599872
25 1 4.9230418977 9.3731068868 -2.2158599872
199 1 4.2343091696 11.8238167368 -3.6758599872
201 1 6.9906513782 10.8050783125 -3.6758599872
202 1 4.9230418977 9.3731068868 -5.1358599872
27 1 7.6815979438 8.3524909328 -2.2158599872
46 1 9.5173223391 10.5953145402 -2.2158599872
204 1 7.6815979438 8.3524909328 -5.1358599872
223 1 9.5173223391 10.5953145402 -5.1358599872
48 1 12.2704804211 9.5767442538 -2.2158599872
67 1 14.1093091672 11.8238167354 -2.2158599872
225 1 12.2704804211 9.5767442538 -5.1358599872
244 1 14.1093091672 11.8238167354 -5.1358599872
68 1 14.7980418971 9.3731068859 -0.7558599872
69 1 16.8656513765 10.8050783134 -2.2158599872
70 1 17.5565979447 8.3524909342 -0.7558599872
245 1 14.7980418971 9.3731068859 -3.6758599872
246 1 16.8656513765 10.8050783134 -5.1358599872
247 1 17.5565979447 8.3524909342 -3.6758599872
89 1 19.3923223378 10.5953145428 -0.7558599872
266 1 19.3923223378 10.5953145428 -3.6758599872
91 1 22.1454804207 9.5767442578 -0.7558599872
110 1 23.9843091649 11.8238167398 -0.7558599872
113 1 24.6730418968 9.3731068902 -2.2158599872
268 1 22.1454804207 9.5767442578 -3.6758599872
287 1 23.9843091649 11.8238167398 -3.6758599872
290 1 24.6730418968 9.3731068902 -5.1358599872
112 1 26.7406513751 10.8050783177 -0.7558599872
115 1 27.4315979449 8.3524909384 -2.2158599872
289 1 26.7406513751 10.8050783177 -3.6758599872
292 1 27.4315979449 8.3524909384 -5.1358599872
134 1 29.2673223366 10.5953145465 -2.2158599872
136 1 32.0204804201 9.5767442608 -2.2158599872
311 1 29.2673223366 10.5953145465 -5.1358599872
313 1 32.0204804201 9.5767442608 -5.1358599872
155 1 33.859309164 11.8238167417 -2.2158599872
156 1 34.5480418965 9.3731068925 -0.7558599872
332 1 33.859309164 11.8238167417 -5.1358599872
333 1 34.5480418965 9.3731068925 -3.6758599872
32 1 39.1423223367 10.5953145474 -3.6758599872
157 1 36.6156513749 10.8050783189 -2.2158599872
158 1 37.3065979448 8.3524909402 -0.7558599872
175 1 39.1423223367 10.5953145474 -0.7558599872
334 1 36.6156513749 10.8050783189 -5.1358599872
335 1 37.3065979448 8.3524909402 -3.6758599872
2 1 1.0187294883 14.4835783344 -0.7558599872
3 1 1.7074864532 12.0303049336 -2.2158599872
21 1 3.5455239135 14.2762099551 -2.2158599872
179 1 1.0187294883 14.4835783344 -3.6758599872
180 1 1.7074864532 12.0303049336 -5.1358599872
198 1 3.5455239135 14.2762099551 -5.1358599872
23 1 6.3009511774 13.2575546326 -2.2158599872
200 1 6.3009511774 13.2575546326 -5.1358599872
42 1 8.1387305353 15.5025431345 -2.2158599872
43 1 8.8279708467 13.0493674856 -0.7558599872
219 1 8.1387305353 15.5025431345 -5.1358599872
220 1 8.8279708467 13.0493674856 -3.6758599872
44 1 10.8937294863 14.483578332 -2.2158599872
221 1 10.8937294863 14.483578332 -5.1358599872
45 1 11.5824864507 12.0303049306 -0.7558599872
64 1 13.4205239107 14.2762099539 -0.7558599872
222 1 11.5824864507 12.0303049306 -3.6758599872
241 1 13.4205239107 14.2762099539 -3.6758599872
66 1 16.1759511743 13.2575546332 -0.7558599872
243 1 16.1759511743 13.2575546332 -3.6758599872
85 1 18.0137305317 15.502543137 -0.7558599872
262 1 18.0137305317 15.502543137 -3.6758599872
87 1 20.7687294826 14.4835783356 -0.7558599872
88 1 18.7029708435 13.049367488 -2.2158599872
90 1 21.4574864482 12.0303049344 -2.2158599872
264 1 20.7687294826 14.4835783356 -3.6758599872
265 1 18.7029708435 13.049367488 -5.1358599872
267 1 21.4574864482 12.0303049344 -5.1358599872
109 1 23.2955239074 14.2762099581 -2.2158599872
286 1 23.2955239074 14.2762099581 -5.1358599872
111 1 26.0509511715 13.2575546372 -2.2158599872
130 1 27.8887305292 15.50254314 -2.2158599872
131 1 28.5779708412 13.0493674914 -0.7558599872
288 1 26.0509511715 13.2575546372 -5.1358599872
307 1 27.8887305292 15.50254314 -5.1358599872
308 1 28.5779708412 13.0493674914 -3.6758599872
132 1 30.6437294807 14.4835783375 -2.2158599872
133 1 31.3324864467 12.030304937 -0.7558599872
309 1 30.6437294807 14.4835783375 -5.1358599872
310 1 31.3324864467 12.030304937 -3.6758599872
152 1 33.1705239061 14.2762099592 -0.7558599872
154 1 35.9259511709 13.2575546379 -0.7558599872
329 1 33.1705239061 14.2762099592 -3.6758599872
331 1 35.9259511709 13.2575546379 -3.6758599872
54 1 38.4529708411 13.0493674919 -5.1358599872
76 1 37.7637305289 15.50254314 -3.6758599872
173 1 37.7637305289 15.50254314 -0.7558599872
174 1 38.4529708411 13.0493674919 -2.2158599872
1 1 0.3297319188 16.9366362805 -2.2158599872
17 1 2.1675795914 19.1819818374 -2.2158599872
18 1 2.8565864347 16.729051129 -0.7558599872
178 1 0.3297319188 16.9366362805 -5.1358599872
194 1 2.1675795914 19.1819818374 -5.1358599872
195 1 2.8565864347 16.729051129 -3.6758599872
19 1 4.9227124389 18.1631753793 -2.2158599872
20 1 5.6117731856 15.7102982182 -0.7558599872
196 1 4.9227124389 18.1631753793 -5.1358599872
197 1 5.6117731856 15.7102982182 -3.6758599872
39 1 7.4496313214 17.9555203668 -0.7558599872
41 1 10.2047319181 16.9366362792 -0.7558599872
216 1 7.4496313214 17.9555203668 -3.6758599872
218 1 10.2047319181 16.9366362792 -3.6758599872
60 1 12.0425795908 19.1819818379 -0.7558599872
63 1 12.7315864328 16.7290511286 -2.2158599872
237 1 12.0425795908 19.1819818379 -3.6758599872
240 1 12.7315864328 16.7290511286 -5.1358599872
62 1 14.7977124367 18.1631753809 -0.7558599872
65 1 15.4867731824 15.7102982191 -2.2158599872
84 1 17.3246313185 17.9555203696 -2.2158599872
239 1 14.7977124367 18.1631753809 -3.6758599872
242 1 15.4867731824 15.7102982191 -5.1358599872
261 1 17.3246313185 17.9555203696 -5.1358599872
86 1 20.0797319146 16.9366362829 -2.2158599872
263 1 20.0797319146 16.9366362829 -5.1358599872
105 1 21.9175795886 19.1819818419 -2.2158599872
106 1 22.6065864295 16.7290511326 -0.7558599872
107 1 24.6727124345 18.1631753843 -2.2158599872
282 1 21.9175795886 19.1819818419 -5.1358599872
283 1 22.6065864295 16.7290511326 -3.6758599872
284 1 24.6727124345 18.1631753843 -5.1358599872
108 1 25.3617731794 15.7102982228 -0.7558599872
285 1 25.3617731794 15.7102982228 -3.6758599872
127 1 27.1996313169 17.9555203721 -0.7558599872
304 1 27.1996313169 17.9555203721 -3.6758599872
129 1 29.9547319133 16.9366362843 -0.7558599872
148 1 31.7925795889 19.1819818421 -0.7558599872
306 1 29.9547319133 16.9366362843 -3.6758599872
325 1 31.7925795889 19.1819818421 -3.6758599872
151 1 32.4815864287 16.7290511332 -2.2158599872
328 1 32.4815864287 16.7290511332 -5.1358599872
150 1 34.5477124347 18.1631753839 -0.7558599872
153 1 35.2367731789 15.7102982228 -2.2158599872
327 1 34.5477124347 18.1631753839 -3.6758599872
330 1 35.2367731789 15.7102982228 -5.1358599872
97 1 37.0746313171 17.9555203718 -5.1358599872
172 1 37.0746313171 17.9555203718 -2.2158599872
14 1 1.4785450548 21.6349238306 -0.7558599872
191 1 1.4785450548 21.6349238306 -3.6758599872
16 1 4.2336728698 20.6160979407 -0.7558599872
35 1 6.0715265316 22.8613987313 -0.7558599872
38 1 6.760574311 20.4084612066 -2.2158599872
193 1 4.2336728698 20.6160979407 -3.6758599872
212 1 6.0715265316 22.8613987313 -3.6758599872
215 1 6.760574311 20.4084612066 -5.1358599872
40 1 9.5156990652 19.3896117272 -2.2158599872
217 1 9.5156990652 19.3896117272 -5.1358599872
37 1 8.8266543068 21.8425597986 -0.7558599872
214 1 8.8266543068 21.8425597986 -3.6758599872
59 1 11.3535450549 21.634923832 -2.2158599872
61 1 14.1086728687 20.6160979431 -2.2158599872
236 1 11.3535450549 21.634923832 -5.1358599872
238 1 14.1086728687 20.6160979431 -5.1358599872
80 1 15.946526531 22.8613987348 -2.2158599872
81 1 16.6355743094 20.4084612098 -0.7558599872
257 1 15.946526531 22.8613987348 -5.1358599872
258 1 16.6355743094 20.4084612098 -3.6758599872
83 1 19.3906990629 19.389611731 -0.7558599872
260 1 19.3906990629 19.389611731 -3.6758599872
82 1 18.7016543057 21.8425598025 -2.2158599872
102 1 21.228545054 21.6349238358 -0.7558599872
259 1 18.7016543057 21.8425598025 -5.1358599872
279 1 21.228545054 21.6349238358 -3.6758599872
104 1 23.9836728678 20.6160979461 -0.7558599872
281 1 23.9836728678 20.6160979461 -3.6758599872
123 1 25.821526532 22.8613987365 -0.7558599872
125 1 28.5766543071 21.8425598029 -0.7558599872
126 1 26.5105743092 20.4084612119 -2.2158599872
300 1 25.821526532 22.8613987365 -3.6758599872
302 1 28.5766543071 21.8425598029 -3.6758599872
303 1 26.5105743092 20.4084612119 -5.1358599872
128 1 29.2656990629 19.3896117319 -2.2158599872
305 1 29.2656990629 19.3896117319 -5.1358599872
147 1 31.1035450559 21.6349238356 -2.2158599872
324 1 31.1035450559 21.6349238356 -5.1358599872
149 1 33.8586728695 20.6160979454 -2.2158599872
168 1 35.6965265345 22.861398736 -2.2158599872
186 1 35.6965265345 22.861398736 -5.1358599872
326 1 33.8586728695 20.6160979454 -5.1358599872
120 1 39.1406990634 19.3896117319 -3.6758599872
171 1 39.1406990634 19.3896117319 -0.7558599872
142 1 38.4516543088 21.8425598031 -5.1358599872
164 1 36.3855743106 20.4084612115 -3.6758599872
169 1 36.3855743106 20.4084612115 -0.7558599872
170 1 38.4516543088 21.8425598031 -2.2158599872
1520 1 0.1004550356 26.5408024121 -0.7558599872
15 1 3.544629132 23.0690307698 -2.2158599872
192 1 3.544629132 23.0690307698 -5.1358599872
12 1 2.8555826376 25.52196682 -0.7558599872
13 1 0.7895004151 24.0878637472 -2.2158599872
189 1 2.8555826376 25.52196682 -3.6758599872
190 1 0.7895004151 24.0878637472 -5.1358599872
1353 1 0.1004550356 26.5408024121 -3.6758599872
34 1 5.3824778668 25.3143349063 -2.2158599872
211 1 5.3824778668 25.3143349063 -5.1358599872
36 1 8.1376080255 24.2955000405 -2.2158599872
55 1 9.9754550346 26.5408024142 -2.2158599872
56 1 10.6645004149 24.0878637492 -0.7558599872
213 1 8.1376080255 24.2955000405 -5.1358599872
232 1 9.9754550346 26.5408024142 -5.1358599872
233 1 10.6645004149 24.0878637492 -3.6758599872
58 1 13.4196291316 23.0690307727 -0.7558599872
235 1 13.4196291316 23.0690307727 -3.6758599872
57 1 12.7305826371 25.521966823 -2.2158599872
234 1 12.7305826371 25.521966823 -5.1358599872
77 1 15.2574778664 25.31433491 -0.7558599872
254 1 15.2574778664 25.31433491 -3.6758599872
79 1 18.0126080251 24.2955000445 -0.7558599872
256 1 18.0126080251 24.2955000445 -3.6758599872
99 1 19.8504550349 26.5408024176 -0.7558599872
101 1 20.5395004149 24.0878637527 -2.2158599872
276 1 19.8504550349 26.5408024176 -3.6758599872
278 1 20.5395004149 24.0878637527 -5.1358599872
103 1 23.2946291319 23.0690307753 -2.2158599872
280 1 23.2946291319 23.0690307753 -5.1358599872
100 1 22.6055826379 25.5219668255 -0.7558599872
122 1 25.132477868 25.3143349112 -2.2158599872
277 1 22.6055826379 25.5219668255 -3.6758599872
299 1 25.132477868 25.3143349112 -5.1358599872
124 1 27.8876080274 24.2955000446 -2.2158599872
301 1 27.8876080274 24.2955000446 -5.1358599872
143 1 29.7254550375 26.5408024165 -2.2158599872
144 1 30.4145004177 24.087863752 -0.7558599872
320 1 29.7254550375 26.5408024165 -5.1358599872
321 1 30.4145004177 24.087863752 -3.6758599872
146 1 33.1696291347 23.0690307744 -0.7558599872
323 1 33.1696291347 23.0690307744 -3.6758599872
322 1 32.4805826409 25.5219668243 -5.1358599872
231 1 35.0074778708 25.3143349105 -3.6758599872
145 1 32.4805826409 25.5219668243 -2.2158599872
165 1 35.0074778708 25.3143349105 -0.7558599872
188 1 37.7626080299 24.2955000449 -3.6758599872
167 1 37.7626080299 24.2955000449 -0.7558599872
340 1 2.1665381212 27.9749039783 -2.2158599872
508 1 2.1665381212 27.9749039783 -5.1358599872
356 1 4.0043868593 30.2202081156 -2.2158599872
357 1 4.6934333499 27.7672720643 -0.7558599872
358 1 6.7595155736 29.2013751382 -2.2158599872
524 1 4.0043868593 30.2202081156 -5.1358599872
525 1 4.6934333499 27.7672720643 -3.6758599872
526 1 6.7595155736 29.2013751382 -5.1358599872
377 1 9.2864079627 28.9937388466 -0.7558599872
545 1 9.2864079627 28.9937388466 -3.6758599872
33 1 7.4485609517 26.7484364727 -0.7558599872
210 1 7.4485609517 26.7484364727 -3.6758599872
379 1 12.0415381201 27.9749039811 -0.7558599872
397 1 13.8793868588 30.2202081188 -0.7558599872
547 1 12.0415381201 27.9749039811 -3.6758599872
565 1 13.8793868588 30.2202081188 -3.6758599872
399 1 16.6345155737 29.2013751419 -0.7558599872
400 1 14.5684333493 27.767272068 -2.2158599872
567 1 16.6345155737 29.2013751419 -3.6758599872
568 1 14.5684333493 27.767272068 -5.1358599872
78 1 17.3235609516 26.7484364766 -2.2158599872
255 1 17.3235609516 26.7484364766 -5.1358599872
420 1 19.1614079631 28.9937388501 -2.2158599872
588 1 19.1614079631 28.9937388501 -5.1358599872
421 1 21.916538121 27.9749039836 -2.2158599872
440 1 23.75438686 30.2202081201 -2.2158599872
441 1 24.4434333508 27.767272069 -0.7558599872
589 1 21.916538121 27.9749039836 -5.1358599872
608 1 23.75438686 30.2202081201 -5.1358599872
609 1 24.4434333508 27.767272069 -3.6758599872
442 1 26.5095155751 29.2013751417 -2.2158599872
610 1 26.5095155751 29.2013751417 -5.1358599872
121 1 27.1985609537 26.7484364764 -0.7558599872
298 1 27.1985609537 26.7484364764 -3.6758599872
461 1 29.0364079647 28.9937388487 -0.7558599872
463 1 31.791538123 27.9749039821 -0.7558599872
629 1 29.0364079647 28.9937388487 -3.6758599872
631 1 31.791538123 27.9749039821 -3.6758599872
481 1 33.6293868601 30.2202081189 -0.7558599872
484 1 34.3184333527 27.767272068 -2.2158599872
649 1 33.6293868601 30.2202081189 -3.6758599872
652 1 34.3184333527 27.767272068 -5.1358599872
402 1 38.911407965 28.99373885 -5.1358599872
483 1 36.3845155756 29.2013751417 -0.7558599872
501 1 38.911407965 28.99373885 -2.2158599872
651 1 36.3845155756 29.2013751417 -3.6758599872
209 1 37.0735609558 26.7484364766 -5.1358599872
166 1 37.0735609558 26.7484364766 -2.2158599872
339 1 1.4774894608 30.4278401548 -0.7558599872
507 1 1.4774894608 30.4278401548 -3.6758599872
338 1 0.7884416898 32.8807776815 -2.2158599872
353 1 3.3153431296 32.6731409467 -0.7558599872
506 1 0.7884416898 32.8807776815 -5.1358599872
521 1 3.3153431296 32.6731409467 -3.6758599872
355 1 6.0704709397 31.6543150564 -0.7558599872
523 1 6.0704709397 31.6543150564 -3.6758599872
373 1 7.9083169388 33.8996271621 -0.7558599872
375 1 10.6634416886 32.8807776826 -0.7558599872
376 1 8.5973616873 31.4466790894 -2.2158599872
541 1 7.9083169388 33.8996271621 -3.6758599872
543 1 10.6634416886 32.8807776826 -3.6758599872
544 1 8.5973616873 31.4466790894 -5.1358599872
378 1 11.3524894595 30.4278401568 -2.2158599872
546 1 11.3524894595 30.4278401568 -5.1358599872
396 1 13.1903431293 32.6731409492 -2.2158599872
564 1 13.1903431293 32.6731409492 -5.1358599872
398 1 15.94547094 31.6543150598 -2.2158599872
416 1 17.7833169402 33.8996271659 -2.2158599872
566 1 15.94547094 31.6543150598 -5.1358599872
584 1 17.7833169402 33.8996271659 -5.1358599872
419 1 21.2274894605 30.4278401593 -0.7558599872
587 1 21.2274894605 30.4278401593 -3.6758599872
417 1 18.4723616881 31.4466790931 -0.7558599872
418 1 20.5384416902 32.8807776856 -2.2158599872
585 1 18.4723616881 31.4466790931 -3.6758599872
586 1 20.5384416902 32.8807776856 -5.1358599872
437 1 23.0653431307 32.6731409512 -0.7558599872
605 1 23.0653431307 32.6731409512 -3.6758599872
439 1 25.8204709411 31.65431506 -0.7558599872
457 1 27.6583169408 33.8996271656 -0.7558599872
460 1 28.3473616887 31.446679092 -2.2158599872
607 1 25.8204709411 31.65431506 -3.6758599872
625 1 27.6583169408 33.8996271656 -3.6758599872
628 1 28.3473616887 31.446679092 -5.1358599872
462 1 31.102489461 30.4278401578 -2.2158599872
630 1 31.102489461 30.4278401578 -5.1358599872
459 1 30.4134416897 32.8807776845 -0.7558599872
627 1 30.4134416897 32.8807776845 -3.6758599872
480 1 32.9403431294 32.67314095 -2.2158599872
482 1 35.6954709395 31.6543150598 -2.2158599872
648 1 32.9403431294 32.67314095 -5.1358599872
650 1 35.6954709395 31.6543150598 -5.1358599872
422 1 38.2223616868 31.4466790929 -3.6758599872
443 1 37.5333169369 33.8996271661 -5.1358599872
499 1 37.5333169369 33.8996271661 -2.2158599872
500 1 38.2223616868 31.4466790929 -0.7558599872
337 1 0.0993846921 35.3337185233 -0.7558599872
349 1 1.9372428422 37.5789406738 -0.7558599872
352 1 2.6263035729 35.1260635104 -2.2158599872
505 1 0.0993846921 35.3337185233 -3.6758599872
517 1 1.9372428422 37.5789406738 -3.6758599872
520 1 2.6263035729 35.1260635104 -5.1358599872
354 1 5.3814364138 34.1072570516 -2.2158599872
522 1 5.3814364138 34.1072570516 -5.1358599872
351 1 4.6924295856 36.5601877623 -0.7558599872
519 1 4.6924295856 36.5601877623 -3.6758599872
372 1 7.2192840998 36.3526026114 -2.2158599872
374 1 9.9743846909 35.3337185235 -2.2158599872
540 1 7.2192840998 36.3526026114 -5.1358599872
542 1 9.9743846909 35.3337185235 -5.1358599872
392 1 11.8122428418 37.5789406746 -2.2158599872
393 1 12.5013035728 35.1260635122 -0.7558599872
560 1 11.8122428418 37.5789406746 -5.1358599872
561 1 12.5013035728 35.1260635122 -3.6758599872
395 1 15.2564364146 34.1072570548 -0.7558599872
563 1 15.2564364146 34.1072570548 -3.6758599872
394 1 14.5674295865 36.5601877648 -2.2158599872
413 1 17.0942841016 36.3526026149 -0.7558599872
562 1 14.5674295865 36.5601877648 -5.1358599872
581 1 17.0942841016 36.3526026149 -3.6758599872
415 1 19.8493846931 35.3337185272 -0.7558599872
583 1 19.8493846931 35.3337185272 -3.6758599872
433 1 21.6872428448 37.5789406782 -0.7558599872
435 1 24.4424295889 36.5601877673 -0.7558599872
436 1 22.376303575 35.126063515 -2.2158599872
601 1 21.6872428448 37.5789406782 -3.6758599872
603 1 24.4424295889 36.5601877673 -3.6758599872
604 1 22.376303575 35.126063515 -5.1358599872
438 1 25.131436416 34.1072570559 -2.2158599872
606 1 25.131436416 34.1072570559 -5.1358599872
456 1 26.9692841031 36.352602616 -2.2158599872
624 1 26.9692841031 36.352602616 -5.1358599872
458 1 29.7243846929 35.3337185271 -2.2158599872
476 1 31.5622428442 37.5789406787 -2.2158599872
477 1 32.2513035733 35.1260635144 -0.7558599872
626 1 29.7243846929 35.3337185271 -5.1358599872
644 1 31.5622428442 37.5789406787 -5.1358599872
645 1 32.2513035733 35.1260635144 -3.6758599872
479 1 35.006436413 34.1072570557 -0.7558599872
647 1 35.006436413 34.1072570557 -3.6758599872
478 1 34.317429586 36.5601877676 -2.2158599872
646 1 34.317429586 36.5601877676 -5.1358599872
486 1 36.8442840987 36.3526026166 -3.6758599872
497 1 36.8442840987 36.3526026166 -0.7558599872
348 1 1.2480648688 40.0316842612 -2.2158599872
516 1 1.2480648688 40.0316842612 -5.1358599872
350 1 4.0034921248 39.0130289381 -2.2158599872
368 1 5.841529603 41.2589339621 -2.2158599872
369 1 6.5302865485 38.8056605598 -0.7558599872
518 1 4.0034921248 39.0130289381 -5.1358599872
536 1 5.841529603 41.2589339621 -5.1358599872
537 1 6.5302865485 38.8056605598 -3.6758599872
371 1 9.2852854928 37.7866957568 -0.7558599872
539 1 9.2852854928 37.7866957568 -3.6758599872
370 1 8.5960451993 40.2398714067 -2.2158599872
538 1 8.5960451993 40.2398714067 -5.1358599872
389 1 11.1230648676 40.031684261 -0.7558599872
391 1 13.878492125 39.0130289398 -0.7558599872
557 1 11.1230648676 40.031684261 -3.6758599872
559 1 13.878492125 39.0130289398 -3.6758599872
409 1 15.716529603 41.2589339645 -0.7558599872
412 1 16.4052865499 38.8056605629 -2.2158599872
577 1 15.716529603 41.2589339645 -3.6758599872
580 1 16.4052865499 38.8056605629 -5.1358599872
414 1 19.1602854953 37.7866957607 -2.2158599872
582 1 19.1602854953 37.7866957607 -5.1358599872
411 1 18.4710452012 40.2398714102 -0.7558599872
432 1 20.9980648707 40.0316842649 -2.2158599872
579 1 18.4710452012 40.2398714102 -3.6758599872
600 1 20.9980648707 40.0316842649 -5.1358599872
434 1 23.7534921284 39.0130289432 -2.2158599872
602 1 23.7534921284 39.0130289432 -5.1358599872
452 1 25.5915296067 41.2589339678 -2.2158599872
453 1 26.2802865527 38.8056605653 -0.7558599872
454 1 28.3460452039 40.2398714127 -2.2158599872
620 1 25.5915296067 41.2589339678 -5.1358599872
621 1 26.2802865527 38.8056605653 -3.6758599872
622 1 28.3460452039 40.2398714127 -5.1358599872
455 1 29.0352854963 37.7866957619 -0.7558599872
623 1 29.0352854963 37.7866957619 -3.6758599872
473 1 30.873064872 40.0316842667 -0.7558599872
641 1 30.873064872 40.0316842667 -3.6758599872
475 1 33.628492127 39.0130289446 -0.7558599872
493 1 35.4665296057 41.2589339699 -0.7558599872
570 1 35.4665296057 41.2589339699 -3.6758599872
643 1 33.628492127 39.0130289446 -3.6758599872
464 1 38.9102854911 37.7866957632 -5.1358599872
498 1 38.9102854911 37.7866957632 -2.2158599872
495 1 38.2210452002 40.2398714144 -0.7558599872
496 1 36.1552865494 38.8056605665 -2.2158599872
502 1 36.1552865494 38.8056605665 -5.1358599872
527 1 38.2210452002 40.2398714144 -3.6758599872
347 1 3.3147068881 41.4654221574 -0.7558599872
515 1 3.3147068881 41.4654221574 -3.6758599872
345 1 0.5583646876 42.4841605823 -0.7558599872
346 1 2.6259741792 43.9161320079 -2.2158599872
513 1 0.5583646876 42.4841605823 -3.6758599872
514 1 2.6259741792 43.9161320079 -5.1358599872
365 1 5.153535653 43.7124946397 -0.7558599872
533 1 5.153535653 43.7124946397 -3.6758599872
367 1 7.9066937258 42.693924353 -0.7558599872
385 1 9.7424181382 44.936747962 -0.7558599872
388 1 10.4333646851 42.4841605816 -2.2158599872
535 1 7.9066937258 42.693924353 -3.6758599872
553 1 9.7424181382 44.936747962 -3.6758599872
556 1 10.4333646851 42.4841605816 -5.1358599872
390 1 13.1897068869 41.4654221582 -2.2158599872
558 1 13.1897068869 41.4654221582 -5.1358599872
387 1 12.5009741763 43.9161320082 -0.7558599872
555 1 12.5009741763 43.9161320082 -3.6758599872
408 1 15.0285356511 43.7124946413 -2.2158599872
576 1 15.0285356511 43.7124946413 -5.1358599872
410 1 17.7816937261 42.6939243559 -2.2158599872
578 1 17.7816937261 42.6939243559 -5.1358599872
428 1 19.617418138 44.9367479652 -2.2158599872
429 1 20.3083646869 42.4841605853 -0.7558599872
596 1 19.617418138 44.9367479652 -5.1358599872
597 1 20.3083646869 42.4841605853 -3.6758599872
431 1 23.0647068902 41.4654221621 -0.7558599872
599 1 23.0647068902 41.4654221621 -3.6758599872
430 1 22.3759741786 43.9161320118 -2.2158599872
449 1 24.9035356544 43.7124946449 -0.7558599872
598 1 22.3759741786 43.9161320118 -5.1358599872
617 1 24.9035356544 43.7124946449 -3.6758599872
451 1 27.6566937298 42.6939243591 -0.7558599872
619 1 27.6566937298 42.6939243591 -3.6758599872
469 1 29.4924181418 44.9367479686 -0.7558599872
472 1 30.1833646899 42.4841605881 -2.2158599872
637 1 29.4924181418 44.9367479686 -3.6758599872
640 1 30.1833646899 42.4841605881 -5.1358599872
471 1 32.2509741814 43.916132015 -0.7558599872
639 1 32.2509741814 43.916132015 -3.6758599872
474 1 32.9397068911 41.4654221646 -2.2158599872
642 1 32.9397068911 41.4654221646 -5.1358599872
492 1 34.7785356558 43.712494648 -2.2158599872
590 1 34.7785356558 43.712494648 -5.1358599872
494 1 37.5316937287 42.6939243616 -2.2158599872
548 1 37.5316937287 42.6939243616 -5.1358599872
1688 1 39.3674181419 44.9367479707 -2.2158599872
1856 1 39.3674181419 44.9367479707 -5.1358599872
342 1 1.2334203014 48.7953208135 -2.2158599872
343 1 1.9367417472 46.3615952184 -0.7558599872
510 1 1.2334203014 48.7953208135 -5.1358599872
511 1 1.9367417472 46.3615952184 -3.6758599872
361 1 3.7930546154 48.6095991044 -0.7558599872
363 1 6.5353890631 47.6188797972 -0.7558599872
364 1 4.4679030945 46.1648379518 -2.2158599872
529 1 3.7930546154 48.6095991044 -3.6758599872
531 1 6.5353890631 47.6188797972 -3.6758599872
532 1 4.4679030945 46.1648379518 -5.1358599872
366 1 7.2169510364 45.1511128448 -2.2158599872
534 1 7.2169510364 45.1511128448 -5.1358599872
384 1 9.0430476744 47.3890306722 -2.2158599872
552 1 9.0430476744 47.3890306722 -5.1358599872
383 1 11.1084202971 48.7953208141 -0.7558599872
386 1 11.811741743 46.3615952185 -2.2158599872
404 1 13.6680546107 48.6095991056 -2.2158599872
551 1 11.1084202971 48.7953208141 -3.6758599872
554 1 11.811741743 46.3615952185 -5.1358599872
572 1 13.6680546107 48.6095991056 -5.1358599872
407 1 17.0919510345 45.151112847 -0.7558599872
575 1 17.0919510345 45.151112847 -3.6758599872
405 1 14.3429030908 46.164837953 -0.7558599872
406 1 16.4103890595 47.6188797991 -2.2158599872
573 1 14.3429030908 46.164837953 -3.6758599872
574 1 16.4103890595 47.6188797991 -5.1358599872
425 1 18.9180476719 47.3890306737 -0.7558599872
426 1 20.9834202945 48.7953208166 -2.2158599872
593 1 18.9180476719 47.3890306737 -3.6758599872
594 1 20.9834202945 48.7953208166 -5.1358599872
427 1 21.6867417431 46.3615952216 -0.7558599872
445 1 23.5430546109 48.6095991082 -0.7558599872
448 1 24.2179030926 46.1648379563 -2.2158599872
595 1 21.6867417431 46.3615952216 -3.6758599872
613 1 23.5430546109 48.6095991082 -3.6758599872
616 1 24.2179030926 46.1648379563 -5.1358599872
450 1 26.9669510379 45.1511128504 -2.2158599872
618 1 26.9669510379 45.1511128504 -5.1358599872
447 1 26.2853890618 47.6188798021 -0.7558599872
615 1 26.2853890618 47.6188798021 -3.6758599872
467 1 30.8584202971 48.7953208196 -0.7558599872
468 1 28.7930476752 47.3890306757 -2.2158599872
470 1 31.5617417468 46.3615952251 -2.2158599872
635 1 30.8584202971 48.7953208196 -3.6758599872
636 1 28.7930476752 47.3890306757 -5.1358599872
638 1 31.5617417468 46.3615952251 -5.1358599872
488 1 33.4180546147 48.6095991115 -2.2158599872
489 1 34.0929030957 46.1648379598 -0.7558599872
654 1 34.0929030957 46.1648379598 -3.6758599872
656 1 33.4180546147 48.6095991115 -5.1358599872
491 1 36.8419510393 45.1511128535 -0.7558599872