ITEM: TIMESTEP
0
ITEM: NUMBER OF ATOMS
21504
ITEM: BOX BOUNDS pp pp pp
0.0 158.0
0.8291521433 104.1708478567
-5.84 17.52
ITEM: ATOMS x y z type id
1.6809503519 3.213988308 -2.2158599872 1 8
1.6809503519 3.213988308 -5.1358599872 1 185
4.4671831116 2.2790574737 -2.2158599872 1 10
6.9826723169 2.1533338572 -0.7558599872 1 30
4.4671831116 2.2790574737 -5.1358599872 1 187
6.9826723169 2.1533338572 -3.6758599872 1 207
6.3155958214 4.4939180794 -2.2158599872 1 29
6.3155958214 4.4939180794 -5.1358599872 1 206
9.0818030562 3.3655227559 -2.2158599872 1 31
9.0818030562 3.3655227559 -5.1358599872 1 208
11.5559503543 3.2139883078 -0.7558599872 1 51
14.3421831168 2.2790574746 -0.7558599872 1 53
11.5559503543 3.2139883078 -3.6758599872 1 228
14.3421831168 2.2790574746 -3.6758599872 1 230
16.857672323 2.1533338589 -2.2158599872 1 75
16.857672323 2.1533338589 -5.1358599872 1 252
16.1905958262 4.4939180802 -0.7558599872 1 72
16.1905958262 4.4939180802 -3.6758599872 1 249
18.9568030619 3.3655227579 -0.7558599872 1 74
21.4309503597 3.2139883102 -2.2158599872 1 96
18.9568030619 3.3655227579 -3.6758599872 1 251
21.4309503597 3.2139883102 -5.1358599872 1 273
24.2171831212 2.2790574771 -2.2158599872 1 98
24.2171831212 2.2790574771 -5.1358599872 1 275
26.7326723265 2.1533338613 -0.7558599872 1 118
26.7326723265 2.1533338613 -3.6758599872 1 295
26.065595829 4.4939180835 -2.2158599872 1 117
26.065595829 4.4939180835 -5.1358599872 1 294
28.831803064 3.3655227611 -2.2158599872 1 119
28.831803064 3.3655227611 -5.1358599872 1 296
31.3059503607 3.213988313 -0.7558599872 1 139
31.3059503607 3.213988313 -3.6758599872 1 316
34.0921831207 2.2790574794 -0.7558599872 1 141
34.0921831207 2.2790574794 -3.6758599872 1 318
35.9405958278 4.4939180858 -0.7558599872 1 160
35.9405958278 4.4939180858 -3.6758599872 1 319
38.7068030627 3.3655227627 -0.7558599872 1 162
36.6076723257 2.153333864 -2.2158599872 1 163
36.6076723257 2.153333864 -5.1358599872 1 253
38.7068030627 3.3655227627 -3.6758599872 1 274
1.0136270422 5.670359098 -0.7558599872 1 5
3.0811129997 7.1244009442 -2.2158599872 1 6
1.0136270422 5.670359098 -3.6758599872 1 182
3.0811129997 7.1244009442 -5.1358599872 1 183
0.3320650502 8.1381260522 -2.2158599872 1 1519
0.3320650502 8.1381260522 -5.1358599872 1 1375
3.7559614988 4.6796397925 -0.7558599872 1 7
3.7559614988 4.6796397925 -3.6758599872 1 184
5.6122743498 6.9276436761 -0.7558599872 1 26
5.6122743498 6.9276436761 -3.6758599872 1 203
8.3809684288 5.9002082276 -0.7558599872 1 28
8.3809684288 5.9002082276 -3.6758599872 1 205
10.2070650489 8.1381260492 -0.7558599872 1 47
10.2070650489 8.1381260492 -3.6758599872 1 224
10.8886270429 5.6703590963 -2.2158599872 1 50
10.8886270429 5.6703590963 -5.1358599872 1 227
12.9561130006 7.1244009425 -0.7558599872 1 49
13.630961502 4.679639792 -2.2158599872 1 52
12.9561130006 7.1244009425 -3.6758599872 1 226
13.630961502 4.679639792 -5.1358599872 1 229
15.4872743518 6.927643676 -2.2158599872 1 71
15.4872743518 6.927643676 -5.1358599872 1 248
18.2559684325 5.9002082296 -2.2158599872 1 73
18.2559684325 5.9002082296 -5.1358599872 1 250
20.7636270468 5.6703590991 -0.7558599872 1 93
20.7636270468 5.6703590991 -3.6758599872 1 270
20.0820650503 8.1381260521 -2.2158599872 1 92
20.0820650503 8.1381260521 -5.1358599872 1 269
22.8311130026 7.1244009463 -2.2158599872 1 94
23.5059615059 4.6796397953 -0.7558599872 1 95
22.8311130026 7.1244009463 -5.1358599872 1 271
23.5059615059 4.6796397953 -3.6758599872 1 272
25.3622743535 6.9276436798 -0.7558599872 1 114
25.3622743535 6.9276436798 -3.6758599872 1 291
28.1309684339 5.9002082333 -0.7558599872 1 116
28.1309684339 5.9002082333 -3.6758599872 1 293
30.6386270474 5.6703591025 -2.2158599872 1 138
30.6386270474 5.6703591025 -5.1358599872 1 315
29.9570650502 8.1381260557 -0.7558599872 1 135
29.9570650502 8.1381260557 -3.6758599872 1 312
32.7061130026 7.1244009494 -0.7558599872 1 137
32.7061130026 7.1244009494 -3.6758599872 1 314
33.3809615061 4.6796397982 -2.2158599872 1 140
35.2372743533 6.9276436823 -2.2158599872 1 159
33.3809615061 4.6796397982 -5.1358599872 1 317
35.2372743533 6.9276436823 -5.1358599872 1 336
38.0059684334 5.9002082342 -2.2158599872 1 161
38.0059684334 5.9002082342 -5.1358599872 1 297
2.3954804224 9.5767442565 -0.7558599872 1 4
2.3954804224 9.5767442565 -3.6758599872 1 181
4.2343091696 11.8238167368 -0.7558599872 1 22
6.9906513782 10.8050783125 -0.7558599872 1 24
4.9230418977 9.3731068868 -2.2158599872 1 25
4.2343091696 11.8238167368 -3.6758599872 1 199
6.9906513782 10.8050783125 -3.6758599872 1 201
4.9230418977 9.3731068868 -5.1358599872 1 202
7.6815979438 8.3524909328 -2.2158599872 1 27
9.5173223391 10.5953145402 -2.2158599872 1 46
7.6815979438 8.3524909328 -5.1358599872 1 204
9.5173223391 10.5953145402 -5.1358599872 1 223
12.2704804211 9.5767442538 -2.2158599872 1 48
14.1093091672 11.8238167354 -2.2158599872 1 67
12.2704804211 9.5767442538 -5.1358599872 1 225
14.1093091672 11.8238167354 -5.1358599872 1 244
14.7980418971 9.3731068859 -0.7558599872 1 68
16.8656513765 10.8050783134 -2.2158599872 1 69
17.5565979447 8.3524909342 -0.7558599872 1 70
14.7980418971 9.3731068859 -3.6758599872 1 245
16.8656513765 10.8050783134 -5.1358599872 1 246
17.5565979447 8.3524909342 -3.6758599872 1 247
19.3923223378 10.5953145428 -0.7558599872 1 89
19.3923223378 10.5953145428 -3.6758599872 1 266
22.1454804207 9.5767442578 -0.7558599872 1 91
23.9843091649 11.8238167398 -0.7558599872 1 110
24.6730418968 9.3731068902 -2.2158599872 1 113
22.1454804207 9.5767442578 -3.6758599872 1 268
23.9843091649 11.8238167398 -3.6758599872 1 287
24.6730418968 9.3731068902 -5.1358599872 1 290
26.7406513751 10.8050783177 -0.7558599872 1 112
27.4315979449 8.3524909384 -2.2158599872 1 115
26.7406513751 10.8050783177 -3.6758599872 1 289
27.4315979449 8.3524909384 -5.1358599872 1 292
29.2673223366 10.5953145465 -2.2158599872 1 134
32.0204804201 9.5767442608 -2.2158599872 1 136
29.2673223366 10.5953145465 -5.1358599872 1 311
32.0204804201 9.5767442608 -5.1358599872 1 313
33.859309164 11.8238167417 -2.2158599872 1 155
34.5480418965 9.3731068925 -0.7558599872 1 156
33.859309164 11.8238167417 -5.1358599872 1 332
34.5480418965 9.3731068925 -3.6758599872 1 333
39.1423223367 10.5953145474 -3.6758599872 1 32
36.6156513749 10.8050783189 -2.2158599872 1 157
37.3065979448 8.3524909402 -0.7558599872 1 158
39.1423223367 10.5953145474 -0.7558599872 1 175
36.6156513749 10.8050783189 -5.1358599872 1 334
37.3065979448 8.3524909402 -3.6758599872 1 335
1.0187294883 14.4835783344 -0.7558599872 1 2
1.7074864532 12.0303049336 -2.2158599872 1 3
3.5455239135 14.2762099551 -2.2158599872 1 21
1.0187294883 14.4835783344 -3.6758599872 1 179
1.7074864532 12.0303049336 -5.1358599872 1 180
3.5455239135 14.2762099551 -5.1358599872 1 198
6.3009511774 13.2575546326 -2.2158599872 1 23
6.3009511774 13.2575546326 -5.1358599872 1 200
8.1387305353 15.5025431345 -2.2158599872 1 42
8.8279708467 13.0493674856 -0.7558599872 1 43
8.1387305353 15.5025431345 -5.1358599872 1 219
8.8279708467 13.0493674856 -3.6758599872 1 220
10.8937294863 14.483578332 -2.2158599872 1 44
10.8937294863 14.483578332 -5.1358599872 1 221
11.5824864507 12.0303049306 -0.7558599872 1 45
13.4205239107 14.2762099539 -0.7558599872 1 64
11.5824864507 12.0303049306 -3.6758599872 1 222
13.4205239107 14.2762099539 -3.6758599872 1 241
16.1759511743 13.2575546332 -0.7558599872 1 66
16.1759511743 13.2575546332 -3.6758599872 1 243
18.0137305317 15.502543137 -0.7558599872 1 85
18.0137305317 15.502543137 -3.6758599872 1 262
20.7687294826 14.4835783356 -0.7558599872 1 87
18.7029708435 13.049367488 -2.2158599872 1 88
21.4574864482 12.0303049344 -2.2158599872 1 90
20.7687294826 14.4835783356 -3.6758599872 1 264
18.7029708435 13.049367488 -5.1358599872 1 265
21.4574864482 12.0303049344 -5.1358599872 1 267
23.2955239074 14.2762099581 -2.2158599872 1 109
23.2955239074 14.2762099581 -5.1358599872 1 286
26.0509511715 13.2575546372 -2.2158599872 1 111
27.8887305292 15.50254314 -2.2158599872 1 130
28.5779708412 13.0493674914 -0.7558599872 1 131
26.0509511715 13.2575546372 -5.1358599872 1 288
27.8887305292 15.50254314 -5.1358599872 1 307
28.5779708412 13.0493674914 -3.6758599872 1 308
30.6437294807 14.4835783375 -2.2158599872 1 132
31.3324864467 12.030304937 -0.7558599872 1 133
30.6437294807 14.4835783375 -5.1358599872 1 309
31.3324864467 12.030304937 -3.6758599872 1 310
33.1705239061 14.2762099592 -0.7558599872 1 152
35.9259511709 13.2575546379 -0.7558599872 1 154
33.1705239061 14.2762099592 -3.6758599872 1 329
35.9259511709 13.2575546379 -3.6758599872 1 331
38.4529708411 13.0493674919 -5.1358599872 1 54
37.7637305289 15.50254314 -3.6758599872 1 76
37.7637305289 15.50254314 -0.7558599872 1 173
38.4529708411 13.0493674919 -2.2158599872 1 174
0.3297319188 16.9366362805 -2.2158599872 1 1
2.1675795914 19.1819818374 -2.2158599872 1 17
2.8565864347 16.729051129 -0.7558599872 1 18
0.3297319188 16.9366362805 -5.1358599872 1 178
2.1675795914 19.1819818374 -5.1358599872 1 194
2.8565864347 16.729051129 -3.6758599872 1 195
4.9227124389 18.1631753793 -2.2158599872 1 19
5.6117731856 15.7102982182 -0.7558599872 1 20
4.9227124389 18.1631753793 -5.1358599872 1 196
5.6117731856 15.7102982182 -3.6758599872 1 197
7.4496313214 17.9555203668 -0.7558599872 1 39
10.2047319181 16.9366362792 -0.7558599872 1 41
7.4496313214 17.9555203668 -3.6758599872 1 216
10.2047319181 16.9366362792 -3.6758599872 1 218
12.0425795908 19.1819818379 -0.7558599872 1 60
12.7315864328 16.7290511286 -2.2158599872 1 63
12.0425795908 19.1819818379 -3.6758599872 1 237
12.7315864328 16.7290511286 -5.1358599872 1 240
14.7977124367 18.1631753809 -0.7558599872 1 62
15.4867731824 15.7102982191 -2.2158599872 1 65
17.3246313185 17.9555203696 -2.2158599872 1 84
14.7977124367 18.1631753809 -3.6758599872 1 239
15.4867731824 15.7102982191 -5.1358599872 1 242
17.3246313185 17.9555203696 -5.1358599872 1 261
20.0797319146 16.9366362829 -2.2158599872 1 86
20.0797319146 16.9366362829 -5.1358599872 1 263
21.9175795886 19.1819818419 -2.2158599872 1 105
22.6065864295 16.7290511326 -0.7558599872 1 106
24.6727124345 18.1631753843 -2.2158599872 1 107
21.9175795886 19.1819818419 -5.1358599872 1 282
22.6065864295 16.7290511326 -3.6758599872 1 283
24.6727124345 18.1631753843 -5.1358599872 1 284
25.3617731794 15.7102982228 -0.7558599872 1 108
25.3617731794 15.7102982228 -3.6758599872 1 285
27.1996313169 17.9555203721 -0.7558599872 1 127
27.1996313169 17.9555203721 -3.6758599872 1 304
29.9547319133 16.9366362843 -0.7558599872 1 129
31.7925795889 19.1819818421 -0.7558599872 1 148
29.9547319133 16.9366362843 -3.6758599872 1 306
31.7925795889 19.1819818421 -3.6758599872 1 325
32.4815864287 16.7290511332 -2.2158599872 1 151
32.4815864287 16.7290511332 -5.1358599872 1 328
34.5477124347 18.1631753839 -0.7558599872 1 150
35.2367731789 15.7102982228 -2.2158599872 1 153
34.5477124347 18.1631753839 -3.6758599872 1 327
35.2367731789 15.7102982228 -5.1358599872 1 330
37.0746313171 17.9555203718 -5.1358599872 1 97
37.0746313171 17.9555203718 -2.2158599872 1 172
1.4785450548 21.6349238306 -0.7558599872 1 14
1.4785450548 21.6349238306 -3.6758599872 1 191
4.2336728698 20.6160979407 -0.7558599872 1 16
6.0715265316 22.8613987313 -0.7558599872 1 35
6.760574311 20.4084612066 -2.2158599872 1 38
4.2336728698 20.6160979407 -3.6758599872 1 193
6.0715265316 22.8613987313 -3.6758599872 1 212
6.760574311 20.4084612066 -5.1358599872 1 215
9.5156990652 19.3896117272 -2.2158599872 1 40
9.5156990652 19.3896117272 -5.1358599872 1 217
8.8266543068 21.8425597986 -0.7558599872 1 37
8.8266543068 21.8425597986 -3.6758599872 1 214
11.3535450549 21.634923832 -2.2158599872 1 59
14.1086728687 20.6160979431 -2.2158599872 1 61
11.3535450549 21.634923832 -5.1358599872 1 236
14.1086728687 20.6160979431 -5.1358599872 1 238
15.946526531 22.8613987348 -2.2158599872 1 80
16.6355743094 20.4084612098 -0.7558599872 1 81
15.946526531 22.8613987348 -5.1358599872 1 257
16.6355743094 20.4084612098 -3.6758599872 1 258
19.3906990629 19.389611731 -0.7558599872 1 83
19.3906990629 19.389611731 -3.6758599872 1 260
18.7016543057 21.8425598025 -2.2158599872 1 82
21.228545054 21.6349238358 -0.7558599872 1 102
18.7016543057 21.8425598025 -5.1358599872 1 259
21.228545054 21.6349238358 -3.6758599872 1 279
23.9836728678 20.6160979461 -0.7558599872 1 104
23.9836728678 20.6160979461 -3.6758599872 1 281
25.821526532 22.8613987365 -0.7558599872 1 123
28.5766543071 21.8425598029 -0.7558599872 1 125
26.5105743092 20.4084612119 -2.2158599872 1 126
25.821526532 22.8613987365 -3.6758599872 1 300
28.5766543071 21.8425598029 -3.6758599872 1 302
26.5105743092 20.4084612119 -5.1358599872 1 303
29.2656990629 19.3896117319 -2.2158599872 1 128
29.2656990629 19.3896117319 -5.1358599872 1 305
31.1035450559 21.6349238356 -2.2158599872 1 147
31.1035450559 21.6349238356 -5.1358599872 1 324
33.8586728695 20.6160979454 -2.2158599872 1 149
35.6965265345 22.861398736 -2.2158599872 1 168
35.6965265345 22.861398736 -5.1358599872 1 186
33.8586728695 20.6160979454 -5.1358599872 1 326
39.1406990634 19.3896117319 -3.6758599872 1 120
39.1406990634 19.3896117319 -0.7558599872 1 171
38.4516543088 21.8425598031 -5.1358599872 1 142
36.3855743106 20.4084612115 -3.6758599872 1 164
36.3855743106 20.4084612115 -0.7558599872 1 169
38.4516543088 21.8425598031 -2.2158599872 1 170
0.1004550356 26.5408024121 -0.7558599872 1 1520
3.544629132 23.0690307698 -2.2158599872 1 15
3.544629132 23.0690307698 -5.1358599872 1 192
2.8555826376 25.52196682 -0.7558599872 1 12
0.7895004151 24.0878637472 -2.2158599872 1 13
2.8555826376 25.52196682 -3.6758599872 1 189
0.7895004151 24.0878637472 -5.1358599872 1 190
0.1004550356 26.5408024121 -3.6758599872 1 1353
5.3824778668 25.3143349063 -2.2158599872 1 34
5.3824778668 25.3143349063 -5.1358599872 1 211
8.1376080255 24.2955000405 -2.2158599872 1 36
9.9754550346 26.5408024142 -2.2158599872 1 55
10.6645004149 24.0878637492 -0.7558599872 1 56
8.1376080255 24.2955000405 -5.1358599872 1 213
9.9754550346 26.5408024142 -5.1358599872 1 232
10.6645004149 24.0878637492 -3.6758599872 1 233
13.4196291316 23.0690307727 -0.7558599872 1 58
13.4196291316 23.0690307727 -3.6758599872 1 235
12.7305826371 25.521966823 -2.2158599872 1 57
12.7305826371 25.521966823 -5.1358599872 1 234
15.2574778664 25.31433491 -0.7558599872 1 77
15.2574778664 25.31433491 -3.6758599872 1 254
18.0126080251 24.2955000445 -0.7558599872 1 79
18.0126080251 24.2955000445 -3.6758599872 1 256
19.8504550349 26.5408024176 -0.7558599872 1 99
20.5395004149 24.0878637527 -2.2158599872 1 101
19.8504550349 26.5408024176 -3.6758599872 1 276
20.5395004149 24.0878637527 -5.1358599872 1 278
23.2946291319 23.0690307753 -2.2158599872 1 103
23.2946291319 23.0690307753 -5.1358599872 1 280
22.6055826379 25.5219668255 -0.7558599872 1 100
25.132477868 25.3143349112 -2.2158599872 1 122
22.6055826379 25.5219668255 -3.6758599872 1 277
25.132477868 25.3143349112 -5.1358599872 1 299
27.8876080274 24.2955000446 -2.2158599872 1 124
27.8876080274 24.2955000446 -5.1358599872 1 301
29.7254550375 26.5408024165 -2.2158599872 1 143
30.4145004177 24.087863752 -0.7558599872 1 144
29.7254550375 26.5408024165 -5.1358599872 1 320
30.4145004177 24.087863752 -3.6758599872 1 321
33.1696291347 23.0690307744 -0.7558599872 1 146
33.1696291347 23.0690307744 -3.6758599872 1 323
32.4805826409 25.5219668243 -5.1358599872 1 322
35.0074778708 25.3143349105 -3.6758599872 1 231
32.4805826409 25.5219668243 -2.2158599872 1 145
35.0074778708 25.3143349105 -0.7558599872 1 165
37.7626080299 24.2955000449 -3.6758599872 1 188
37.7626080299 24.2955000449 -0.7558599872 1 167
2.1665381212 27.9749039783 -2.2158599872 1 340
2.1665381212 27.9749039783 -5.1358599872 1 508
4.0043868593 30.2202081156 -2.2158599872 1 356
4.6934333499 27.7672720643 -0.7558599872 1 357
6.7595155736 29.2013751382 -2.2158599872 1 358
4.0043868593 30.2202081156 -5.1358599872 1 524
4.6934333499 27.7672720643 -3.6758599872 1 525
6.7595155736 29.2013751382 -5.1358599872 1 526
9.2864079627 28.9937388466 -0.7558599872 1 377
9.2864079627 28.9937388466 -3.6758599872 1 545
7.4485609517 26.7484364727 -0.7558599872 1 33
7.4485609517 26.7484364727 -3.6758599872 1 210
12.0415381201 27.9749039811 -0.7558599872 1 379
13.8793868588 30.2202081188 -0.7558599872 1 397
12.0415381201 27.9749039811 -3.6758599872 1 547
13.8793868588 30.2202081188 -3.6758599872 1 565
16.6345155737 29.2013751419 -0.7558599872 1 399
14.5684333493 27.767272068 -2.2158599872 1 400
16.6345155737 29.2013751419 -3.6758599872 1 567
14.5684333493 27.767272068 -5.1358599872 1 568
17.3235609516 26.7484364766 -2.2158599872 1 78
17.3235609516 26.7484364766 -5.1358599872 1 255
19.1614079631 28.9937388501 -2.2158599872 1 420
19.1614079631 28.9937388501 -5.1358599872 1 588
21.916538121 27.9749039836 -2.2158599872 1 421
23.75438686 30.2202081201 -2.2158599872 1 440
24.4434333508 27.767272069 -0.7558599872 1 441
21.916538121 27.9749039836 -5.1358599872 1 589
23.75438686 30.2202081201 -5.1358599872 1 608
24.4434333508 27.767272069 -3.6758599872 1 609
26.5095155751 29.2013751417 -2.2158599872 1 442
26.5095155751 29.2013751417 -5.1358599872 1 610
27.1985609537 26.7484364764 -0.7558599872 1 121
27.1985609537 26.7484364764 -3.6758599872 1 298
29.0364079647 28.9937388487 -0.7558599872 1 461
31.791538123 27.9749039821 -0.7558599872 1 463
29.0364079647 28.9937388487 -3.6758599872 1 629
31.791538123 27.9749039821 -3.6758599872 1 631
33.6293868601 30.2202081189 -0.7558599872 1 481
34.3184333527 27.767272068 -2.2158599872 1 484
33.6293868601 30.2202081189 -3.6758599872 1 649
34.3184333527 27.767272068 -5.1358599872 1 652
38.911407965 28.99373885 -5.1358599872 1 402
36.3845155756 29.2013751417 -0.7558599872 1 483
38.911407965 28.99373885 -2.2158599872 1 501
36.3845155756 29.2013751417 -3.6758599872 1 651
37.0735609558 26.7484364766 -5.1358599872 1 209
37.0735609558 26.7484364766 -2.2158599872 1 166
1.4774894608 30.4278401548 -0.7558599872 1 339
1.4774894608 30.4278401548 -3.6758599872 1 507
0.7884416898 32.8807776815 -2.2158599872 1 338
3.3153431296 32.6731409467 -0.7558599872 1 353
0.7884416898 32.8807776815 -5.1358599872 1 506
3.3153431296 32.6731409467 -3.6758599872 1 521
6.0704709397 31.6543150564 -0.7558599872 1 355
6.0704709397 31.6543150564 -3.6758599872 1 523
7.9083169388 33.8996271621 -0.7558599872 1 373
10.6634416886 32.8807776826 -0.7558599872 1 375
8.5973616873 31.4466790894 -2.2158599872 1 376
7.9083169388 33.8996271621 -3.6758599872 1 541
10.6634416886 32.8807776826 -3.6758599872 1 543
8.5973616873 31.4466790894 -5.1358599872 1 544
11.3524894595 30.4278401568 -2.2158599872 1 378
11.3524894595 30.4278401568 -5.1358599872 1 546
13.1903431293 32.6731409492 -2.2158599872 1 396
13.1903431293 32.6731409492 -5.1358599872 1 564
15.94547094 31.6543150598 -2.2158599872 1 398
17.7833169402 33.8996271659 -2.2158599872 1 416
15.94547094 31.6543150598 -5.1358599872 1 566
17.7833169402 33.8996271659 -5.1358599872 1 584
21.2274894605 30.4278401593 -0.7558599872 1 419
21.2274894605 30.4278401593 -3.6758599872 1 587
18.4723616881 31.4466790931 -0.7558599872 1 417
20.5384416902 32.8807776856 -2.2158599872 1 418
18.4723616881 31.4466790931 -3.6758599872 1 585
20.5384416902 32.8807776856 -5.1358599872 1 586
23.0653431307 32.6731409512 -0.7558599872 1 437
23.0653431307 32.6731409512 -3.6758599872 1 605
25.8204709411 31.65431506 -0.7558599872 1 439
27.6583169408 33.8996271656 -0.7558599872 1 457
28.3473616887 31.446679092 -2.2158599872 1 460
25.8204709411 31.65431506 -3.6758599872 1 607
27.6583169408 33.8996271656 -3.6758599872 1 625
28.3473616887 31.446679092 -5.1358599872 1 628
31.102489461 30.4278401578 -2.2158599872 1 462
31.102489461 30.4278401578 -5.1358599872 1 630
30.4134416897 32.8807776845 -0.7558599872 1 459
30.4134416897 32.8807776845 -3.6758599872 1 627
32.9403431294 32.67314095 -2.2158599872 1 480
35.6954709395 31.6543150598 -2.2158599872 1 482
32.9403431294 32.67314095 -5.1358599872 1 648
35.6954709395 31.6543150598 -5.1358599872 1 650
38.2223616868 31.4466790929 -3.6758599872 1 422
37.5333169369 33.8996271661 -5.1358599872 1 443
37.5333169369 33.8996271661 -2.2158599872 1 499
38.2223616868 31.4466790929 -0.7558599872 1 500
0.0993846921 35.3337185233 -0.7558599872 1 337
1.9372428422 37.5789406738 -0.7558599872 1 349
2.6263035729 35.1260635104 -2.2158599872 1 352
0.0993846921 35.3337185233 -3.6758599872 1 505
1.9372428422 37.5789406738 -3.6758599872 1 517
2.6263035729 35.1260635104 -5.1358599872 1 520
5.3814364138 34.1072570516 -2.2158599872 1 354
5.3814364138 34.1072570516 -5.1358599872 1 522
4.6924295856 36.5601877623 -0.7558599872 1 351
4.6924295856 36.5601877623 -3.6758599872 1 519
7.2192840998 36.3526026114 -2.2158599872 1 372
9.9743846909 35.3337185235 -2.2158599872 1 374
7.2192840998 36.3526026114 -5.1358599872 1 540
9.9743846909 35.3337185235 -5.1358599872 1 542
11.8122428418 37.5789406746 -2.2158599872 1 392
12.5013035728 35.1260635122 -0.7558599872 1 393
11.8122428418 37.5789406746 -5.1358599872 1 560
12.5013035728 35.1260635122 -3.6758599872 1 561
15.2564364146 34.1072570548 -0.7558599872 1 395
15.2564364146 34.1072570548 -3.6758599872 1 563
14.5674295865 36.5601877648 -2.2158599872 1 394
17.0942841016 36.3526026149 -0.7558599872 1 413
14.5674295865 36.5601877648 -5.1358599872 1 562
17.0942841016 36.3526026149 -3.6758599872 1 581
19.8493846931 35.3337185272 -0.7558599872 1 415
19.8493846931 35.3337185272 -3.6758599872 1 583
21.6872428448 37.5789406782 -0.7558599872 1 433
24.4424295889 36.5601877673 -0.7558599872 1 435
22.376303575 35.126063515 -2.2158599872 1 436
21.6872428448 37.5789406782 -3.6758599872 1 601
24.4424295889 36.5601877673 -3.6758599872 1 603
22.376303575 35.126063515 -5.1358599872 1 604
25.131436416 34.1072570559 -2.2158599872 1 438
25.131436416 34.1072570559 -5.1358599872 1 606
26.9692841031 36.352602616 -2.2158599872 1 456
26.9692841031 36.352602616 -5.1358599872 1 624
29.7243846929 35.3337185271 -2.2158599872 1 458
31.5622428442 37.5789406787 -2.2158599872 1 476
32.2513035733 35.1260635144 -0.7558599872 1 477
29.7243846929 35.3337185271 -5.1358599872 1 626
31.5622428442 37.5789406787 -5.1358599872 1 644
32.2513035733 35.1260635144 -3.6758599872 1 645
35.006436413 34.1072570557 -0.7558599872 1 479
35.006436413 34.1072570557 -3.6758599872 1 647
34.317429586 36.5601877676 -2.2158599872 1 478
34.317429586 36.5601877676 -5.1358599872 1 646
36.8442840987 36.3526026166 -3.6758599872 1 486
36.8442840987 36.3526026166 -0.7558599872 1 497
1.2480648688 40.0316842612 -2.2158599872 1 348
1.2480648688 40.0316842612 -5.1358599872 1 516
4.0034921248 39.0130289381 -2.2158599872 1 350
5.841529603 41.2589339621 -2.2158599872 1 368
6.5302865485 38.8056605598 -0.7558599872 1 369
4.0034921248 39.0130289381 -5.1358599872 1 518
5.841529603 41.2589339621 -5.1358599872 1 536
6.5302865485 38.8056605598 -3.6758599872 1 537
9.2852854928 37.7866957568 -0.7558599872 1 371
9.2852854928 37.7866957568 -3.6758599872 1 539
8.5960451993 40.2398714067 -2.2158599872 1 370
8.5960451993 40.2398714067 -5.1358599872 1 538
11.1230648676 40.031684261 -0.7558599872 1 389
13.878492125 39.0130289398 -0.7558599872 1 391
11.1230648676 40.031684261 -3.6758599872 1 557
13.878492125 39.0130289398 -3.6758599872 1 559
15.716529603 41.2589339645 -0.7558599872 1 409
16.4052865499 38.8056605629 -2.2158599872 1 412
15.716529603 41.2589339645 -3.6758599872 1 577
16.4052865499 38.8056605629 -5.1358599872 1 580
19.1602854953 37.7866957607 -2.2158599872 1 414
19.1602854953 37.7866957607 -5.1358599872 1 582
18.4710452012 40.2398714102 -0.7558599872 1 411
20.9980648707 40.0316842649 -2.2158599872 1 432
18.4710452012 40.2398714102 -3.6758599872 1 579
20.9980648707 40.0316842649 -5.1358599872 1 600
23.7534921284 39.0130289432 -2.2158599872 1 434
23.7534921284 39.0130289432 -5.1358599872 1 602
25.5915296067 41.2589339678 -2.2158599872 1 452
26.2802865527 38.8056605653 -0.7558599872 1 453
28.3460452039 40.2398714127 -2.2158599872 1 454
25.5915296067 41.2589339678 -5.1358599872 1 620
26.2802865527 38.8056605653 -3.6758599872 1 621
28.3460452039 40.2398714127 -5.1358599872 1 622
29.0352854963 37.7866957619 -0.7558599872 1 455
29.0352854963 37.7866957619 -3.6758599872 1 623
30.873064872 40.0316842667 -0.7558599872 1 473
30.873064872 40.0316842667 -3.6758599872 1 641
33.628492127 39.0130289446 -0.7558599872 1 475
35.4665296057 41.2589339699 -0.7558599872 1 493
35.4665296057 41.2589339699 -3.6758599872 1 570
33.628492127 39.0130289446 -3.6758599872 1 643
38.9102854911 37.7866957632 -5.1358599872 1 464
38.9102854911 37.7866957632 -2.2158599872 1 498
38.2210452002 40.2398714144 -0.7558599872 1 495
36.1552865494 38.8056605665 -2.2158599872 1 496
36.1552865494 38.8056605665 -5.1358599872 1 502
38.2210452002 40.2398714144 -3.6758599872 1 527
3.3147068881 41.4654221574 -0.7558599872 1 347
3.3147068881 41.4654221574 -3.6758599872 1 515
0.5583646876 42.4841605823 -0.7558599872 1 345
2.6259741792 43.9161320079 -2.2158599872 1 346
0.5583646876 42.4841605823 -3.6758599872 1 513
2.6259741792 43.9161320079 -5.1358599872 1 514
5.153535653 43.7124946397 -0.7558599872 1 365
5.153535653 43.7124946397 -3.6758599872 1 533
7.9066937258 42.693924353 -0.7558599872 1 367
9.7424181382 44.936747962 -0.7558599872 1 385
10.4333646851 42.4841605816 -2.2158599872 1 388
7.9066937258 42.693924353 -3.6758599872 1 535
9.7424181382 44.936747962 -3.6758599872 1 553
10.4333646851 42.4841605816 -5.1358599872 1 556
13.1897068869 41.4654221582 -2.2158599872 1 390
13.1897068869 41.4654221582 -5.1358599872 1 558
12.5009741763 43.9161320082 -0.7558599872 1 387
12.5009741763 43.9161320082 -3.6758599872 1 555
15.0285356511 43.7124946413 -2.2158599872 1 408
15.0285356511 43.7124946413 -5.1358599872 1 576
17.7816937261 42.6939243559 -2.2158599872 1 410
17.7816937261 42.6939243559 -5.1358599872 1 578
19.617418138 44.9367479652 -2.2158599872 1 428
20.3083646869 42.4841605853 -0.7558599872 1 429
19.617418138 44.9367479652 -5.1358599872 1 596
20.3083646869 42.4841605853 -3.6758599872 1 597
23.0647068902 41.4654221621 -0.7558599872 1 431
23.0647068902 41.4654221621 -3.6758599872 1 599
22.3759741786 43.9161320118 -2.2158599872 1 430
24.9035356544 43.7124946449 -0.7558599872 1 449
22.3759741786 43.9161320118 -5.1358599872 1 598
24.9035356544 43.7124946449 -3.6758599872 1 617
27.6566937298 42.6939243591 -0.7558599872 1 451
27.6566937298 42.6939243591 -3.6758599872 1 619
29.4924181418 44.9367479686 -0.7558599872 1 469
30.1833646899 42.4841605881 -2.2158599872 1 472
29.4924181418 44.9367479686 -3.6758599872 1 637
30.1833646899 42.4841605881 -5.1358599872 1 640
32.2509741814 43.916132015 -0.7558599872 1 471
32.2509741814 43.916132015 -3.6758599872 1 639
32.9397068911 41.4654221646 -2.2158599872 1 474
32.9397068911 41.4654221646 -5.1358599872 1 642
34.7785356558 43.712494648 -2.2158599872 1 492
34.7785356558 43.712494648 -5.1358599872 1 590
37.5316937287 42.6939243616 -2.2158599872 1 494
37.5316937287 42.6939243616 -5.1358599872 1 548
39.3674181419 44.9367479707 -2.2158599872 1 1688
39.3674181419 44.9367479707 -5.1358599872 1 1856
1.2334203014 48.7953208135 -2.2158599872 1 342
1.9367417472 46.3615952184 -0.7558599872 1 343
1.2334203014 48.7953208135 -5.1358599872 1 510
1.9367417472 46.3615952184 -3.6758599872 1 511
3.7930546154 48.6095991044 -0.7558599872 1 361
6.5353890631 47.6188797972 -0.7558599872 1 363
4.4679030945 46.1648379518 -2.2158599872 1 364
3.7930546154 48.6095991044 -3.6758599872 1 529
6.5353890631 47.6188797972 -3.6758599872 1 531
4.4679030945 46.1648379518 -5.1358599872 1 532
7.2169510364 45.1511128448 -2.2158599872 1 366
7.2169510364 45.1511128448 -5.1358599872 1 534
9.0430476744 47.3890306722 -2.2158599872 1 384
9.0430476744 47.3890306722 -5.1358599872 1 552
11.1084202971 48.7953208141 -0.7558599872 1 383
11.811741743 46.3615952185 -2.2158599872 1 386
13.6680546107 48.6095991056 -2.2158599872 1 404
11.1084202971 48.7953208141 -3.6758599872 1 551
11.811741743 46.3615952185 -5.1358599872 1 554
13.6680546107 48.6095991056 -5.1358599872 1 572
17.0919510345 45.151112847 -0.7558599872 1 407
17.0919510345 45.151112847 -3.6758599872 1 575
14.3429030908 46.164837953 -0.7558599872 1 405
16.4103890595 47.6188797991 -2.2158599872 1 406
14.3429030908 46.164837953 -3.6758599872 1 573
16.4103890595 47.6188797991 -5.1358599872 1 574
18.9180476719 47.3890306737 -0.7558599872 1 425
20.9834202945 48.7953208166 -2.2158599872 1 426
18.9180476719 47.3890306737 -3.6758599872 1 593
20.9834202945 48.7953208166 -5.1358599872 1 594
21.6867417431 46.3615952216 -0.7558599872 1 427
23.5430546109 48.6095991082 -0.7558599872 1 445
24.2179030926 46.1648379563 -2.2158599872 1 448
21.6867417431 46.3615952216 -3.6758599872 1 595
23.5430546109 48.6095991082 -3.6758599872 1 613
24.2179030926 46.1648379563 -5.1358599872 1 616
26.9669510379 45.1511128504 -2.2158599872 1 450
26.9669510379 45.1511128504 -5.1358599872 1 618
26.2853890618 47.6188798021 -0.7558599872 1 447
26.2853890618 47.6188798021 -3.6758599872 1 615
30.8584202971 48.7953208196 -0.7558599872 1 467
28.7930476752 47.3890306757 -2.2158599872 1 468
31.5617417468 46.3615952251 -2.2158599872 1 470
30.8584202971 48.7953208196 -3.6758599872 1 635
28.7930476752 47.3890306757 -5.1358599872 1 636
31.5617417468 46.3615952251 -5.1358599872 1 638
33.4180546147 48.6095991115 -2.2158599872 1 488
34.0929030957 46.1648379598 -0.7558599872 1 489
34.0929030957 46.1648379598 -3.6758599872 1 654
33.4180546147 48.6095991115 -5.1358599872 1 656
36.8419510393 45.1511128535 -0.7558599872 1 491